LAMMPS (23 Jun 2022 - Update 1)
## GraphAne

dimension 3
units metal
processors * * 1
boundary p p p

neighbor 0.3 bin
neigh_modify every 1 delay 0 check yes

#define variables

variable T equal 300.0
variable V equal lx*ly*1.44  # 0.144 nm = lz
variable dt equal 0.0001

#define lattice

atom_style atomic
read_data graphane_10nmX10nm.data
Reading data file ...
  orthogonal box = (0 0 -40) to (100.8 101.845 40)
  4 by 8 by 1 MPI processor grid
  reading atoms ...
  8064 atoms
  read_data CPU = 0.023 seconds

#define interatomic potentials

pair_style			airebo 3 1 0
pair_coeff 			* * CH.airebo C H
Reading airebo potential file CH.airebo with DATE: 2011-10-25

group hydro type 2
4032 atoms in group hydro
group carbon type 1
4032 atoms in group carbon

compute 1 all stress/atom NULL
compute 2 all displace/atom
compute 3 carbon coord/atom cutoff 1.73 group all
compute 4 hydro coord/atom cutoff 1.3 group carbon
variable coords equal "c_3+c_4"

dump mini all custom 10 minimize.xyz id type x y z c_1[1] c_1[2] c_1[3] c_1[4] c_1[5] c_1[6] c_2[1] c_2[2] c_2[3] c_2[4] c_3 c_4
dump_modify mini sort id

#define thermo variable settings

timestep ${dt}
timestep 0.0001
reset_timestep 0
thermo 10

compute eng all pe/atom
compute eatoms all reduce sum c_eng


variable lengthx equal "lx"
variable lengthy equal "ly"
variable ecoh equal "v_teng/v_natoms"
variable la equal "v_lengthx/23"
variable lb equal "v_lengthy/41"
variable natoms equal "count(all)"
variable teng equal "c_eatoms"
variable t equal step*${dt}
variable t equal step*0.0001
variable stp equal "step"

thermo_style custom step pe lx ly lz v_la v_lb press pxx pyy pzz c_eatoms

fix n all ave/time 1 1 1 v_t v_la v_lb v_teng v_ecoh file latticeinfo.txt
fix print_lt all print 10 "$t ${la} ${lb} ${teng} ${ecoh}" file "./latticeinfo_on_the_fly.txt" screen no title "#time_in_ps armchair_length zigzag_length tot_eng cohesive_energy"

# ---------- Run Minimization ---------------------

fix bb all box/relax iso 0 vmax 0.001
min_style cg
minimize 1e-25 1e-25 200000 200000
Neighbor list info ...
  update every 1 steps, delay 0 steps, check yes
  max neighbors/atom: 2000, page size: 100000
  master list distance cutoff = 10.5
  ghost atom cutoff = 10.5
  binsize = 5.25, bins = 20 20 16
  3 neighbor lists, perpetual/occasional/extra = 1 2 0
  (1) pair airebo, perpetual
      attributes: full, newton on, ghost
      pair build: full/bin/ghost
      stencil: full/ghost/bin/3d
      bin: standard
  (2) compute coord/atom, occasional, copy from (1)
      attributes: full, newton on
      pair build: copy
      stencil: none
      bin: none
  (3) compute coord/atom, occasional, copy from (1)
      attributes: full, newton on
      pair build: copy
      stencil: none
      bin: none
Per MPI rank memory allocation (min/avg/max) = 9.034 | 9.036 | 9.039 Mbytes
   Step         PotEng           Lx             Ly             Lz            v_la           v_lb          Press           Pxx            Pyy            Pzz          c_eatoms   
         0   2436.9717      100.8          101.845        80             4.3826087      2.4840244      961521.25      1042407.3      1042319.9      799836.58      2436.9717    
        10  -11732.999      101.808        102.86345      80.8           4.4264348      2.5088646      809929.7       868163.67      868099.62      693525.8      -11732.999    
        20  -21810.64       102.816        103.8819       81.6           4.4702609      2.5337049      454264.41      482512.58      482469.87      397810.76     -21810.64     
        30  -26684.083      103.824        104.90035      82.4           4.514087       2.5585451      179700.84      187725.29      187700.17      163677.06     -26684.083    
        40  -29038.886      104.832        105.9188       83.2           4.557913       2.5833854      124266.71      127406.67      127391.83      118001.63     -29038.886    
        50  -30858.146      105.84         106.93725      84             4.6017391      2.6082256      93217.188      93252.234      93243.9        93155.43      -30858.146    
        60  -32219.625      106.848        107.9557       84.8           4.6455652      2.6330659      66714.717      64233.071      64228.531      71682.55      -32219.625    
        70  -33184.195      107.856        108.97415      85.6           4.6893913      2.6579061      44647.009      40259.869      40256.98       53424.177     -33184.195    
        80  -33809.662      108.864        109.9926       86.4           4.7332174      2.6827463      26348.943      20625.457      20622.57       37798.803     -33809.662    
        90  -34217.082      109.872        111.01105      87.2           4.7770435      2.7075866      20301.342      14215.418      14214.434      32474.174     -34217.082    
       100  -34555.849      110.88         112.0295       88             4.8208696      2.7324268      16521.367      10272.157      10271.251      29020.692     -34555.849    
       110  -34833.671      111.888        113.04795      88.8           4.8646957      2.7572671      13139.689      6798.695       6797.8593      25822.513     -34833.671    
       120  -35055.395      112.896        114.0664       89.6           4.9085217      2.7821073      10116.987      3745.096       3744.3253      22861.541     -35055.395    
       130  -35225.502      113.904        115.08485      90.4           4.9523478      2.8069476      7417.9626      1066.7944      1066.0834      20121.01      -35225.502    
       140  -35348.134      114.912        116.1033       91.2           4.9961739      2.8317878      5010.7972     -1276.1653     -1276.8213      17585.378     -35348.134    
       150  -35427.129      115.92         117.12175      92             5.04           2.856628       2866.6225     -3319.8827     -3320.4883      15240.238     -35427.129    
       160  -35466.062      116.928        118.1402       92.8           5.0838261      2.8814683      959.51881     -5096.5629     -5097.122       13072.241     -35466.062    
       170  -35479.106      117.5328       118.75127      93.28          5.1101217      2.8963724     -91.838411     -6066.2693     -6066.8004      11857.555     -35479.106    
       180  -35501.188      117.5328       118.75127      93.28          5.1101217      2.8963724     -124.93599     -6125.0727     -6125.5983      11875.863     -35501.188    
       190  -35530.327      117.5328       118.75127      93.28          5.1101217      2.8963724     -169.08384     -6203.2318     -6203.7504      11899.731     -35530.327    
       200  -35560.621      117.3312       118.54758      93.12          5.1013565      2.8914044      121.25478     -5980.7565     -5981.2763      12325.797     -35560.621    
       210  -35583.382      117.3312       118.54758      93.12          5.1013565      2.8914044      85.695046     -6043.2456     -6043.7603      12344.091     -35583.382    
       220  -35606.893      117.3312       118.54758      93.12          5.1013565      2.8914044      48.623134     -6108.1877     -6108.6974      12362.754     -35606.893    
       230  -35631.085      117.3312       118.54758      93.12          5.1013565      2.8914044      10.097796     -6175.4203     -6175.925       12381.639     -35631.085    
       240  -35663.08       117.3312       118.54758      93.12          5.1013565      2.8914044     -41.443824     -6264.9619     -6265.4604      12406.091     -35663.08     
       250  -35686.172      117.3312       118.54758      93.12          5.1013565      2.8914044     -79.050517     -6330.0283     -6330.5224      12423.399     -35686.172    
       260  -35710.349      117.3312       118.54758      93.12          5.1013565      2.8914044     -118.78795     -6398.5455     -6399.0353      12441.217     -35710.349    
       270  -35736.266      117.3312       118.54758      93.12          5.1013565      2.8914044     -161.81428     -6472.4177     -6472.9032      12459.878     -35736.266    
       280  -35765.431      117.1296       118.34389      92.96          5.0925913      2.8864363      129.50398     -6251.134      -6251.6218      12891.268     -35765.431    
       290  -35787.616      117.1296       118.34389      92.96          5.0925913      2.8864363      91.630218     -6315.6347     -6316.119       12906.644     -35787.616    
       300  -35810.568      117.1296       118.34389      92.96          5.0925913      2.8864363      52.116204     -6382.7008     -6383.1816      12922.231     -35810.568    
       310  -35834.223      117.1296       118.34389      92.96          5.0925913      2.8864363      11.023496     -6452.1592     -6452.6366      12937.866     -35834.223    
       320  -35865.935      117.1296       118.34389      92.96          5.0925913      2.8864363     -44.6556       -6545.803      -6546.2762      12958.112     -35865.935    
       330  -35888.813      117.1296       118.34389      92.96          5.0925913      2.8864363     -85.229732     -6613.7412     -6614.2115      12972.263     -35888.813    
       340  -35912.47       117.1296       118.34389      92.96          5.0925913      2.8864363     -127.53776     -6684.3197     -6684.7871      12986.494     -35912.47     
       350  -35965.611      117.1296       118.34389      92.96          5.0925913      2.8864363     -223.90344     -6844.0534     -6844.5149      13016.858     -35965.611    
       360  -35980.347      116.928        118.1402       92.8           5.0838261      2.8814683      92.381892     -6583.7704     -6584.2366      13445.153     -35980.347    
       370  -36002.744      116.928        118.1402       92.8           5.0838261      2.8814683      50.693724     -6652.2627     -6652.7267      13457.071     -36002.744    
       380  -36027.646      116.928        118.1402       92.8           5.0838261      2.8814683      3.9458031     -6728.7308     -6729.1925      13469.761     -36027.646    
       390  -36062.267      116.928        118.1402       92.8           5.0838261      2.8814683     -61.718302     -6835.5993     -6836.058       13486.502     -36062.267    
       400  -36084.834      116.928        118.1402       92.8           5.0838261      2.8814683     -104.95665     -6905.5891     -6906.046       13496.765     -36084.834    
       410  -36108.505      116.928        118.1402       92.8           5.0838261      2.8814683     -150.67355     -6979.2867     -6979.7419      13507.008     -36108.505    
       420  -36137.978      116.7264       117.93651      92.64          5.0750609      2.8765002      138.84553     -6765.5919     -6766.0509      13948.179     -36137.978    
       430  -36160.036      116.7264       117.93651      92.64          5.0750609      2.8765002      95.18217      -6835.3577     -6835.8153      13956.72      -36160.036    
       440  -36182.278      116.7264       117.93651      92.64          5.0750609      2.8765002      50.838859     -6905.9489     -6906.4053      13964.871     -36182.278    
       450  -36208.051      116.7264       117.93651      92.64          5.0750609      2.8765002     -0.96536481    -6988.0276     -6988.4825      13973.614     -36208.051    
       460  -36251.123      116.7264       117.93651      92.64          5.0750609      2.8765002     -88.505476     -7125.9031     -7126.356       13986.743     -36251.123    
       470  -36274.154      116.7264       117.93651      92.64          5.0750609      2.8765002     -135.83595     -7199.9625     -7200.4145      13992.869     -36274.154    
       480  -36339.772      116.5248       117.73282      92.48          5.0662957      2.8715322      77.412419     -7106.7529     -7107.2083      14446.199     -36339.772    
       490  -36360.331      116.5248       117.73282      92.48          5.0662957      2.8715322      33.67252      -7174.1019     -7174.5568      14449.676     -36360.331    
       500  -36390.109      116.5248       117.73282      92.48          5.0662957      2.8715322     -30.187004     -7271.9575     -7272.4118      14453.808     -36390.109    
       510  -36413.452      116.5248       117.73282      92.48          5.0662957      2.8715322     -80.663133     -7348.9156     -7349.3696      14456.296     -36413.452    
       520  -36436.598      116.5248       117.73282      92.48          5.0662957      2.8715322     -131.06112     -7425.4376     -7425.8914      14458.146     -36436.598    
       530  -36464.676      116.3232       117.52913      92.32          5.0575304      2.8665641      160.99635     -7211.4989     -7211.9578      14906.446     -36464.676    
       540  -36487.771      116.3232       117.52913      92.32          5.0575304      2.8665641      109.59043     -7288.8384     -7289.2973      14906.907     -36487.771    
       550  -36509.816      116.3232       117.52913      92.32          5.0575304      2.8665641      60.201586     -7362.8517     -7363.3106      14906.767     -36509.816    
       560  -36533.288      116.3232       117.52913      92.32          5.0575304      2.8665641      7.2486477     -7441.8405     -7442.2994      14905.886     -36533.288    
       570  -36560.338      116.3232       117.52913      92.32          5.0575304      2.8665641     -54.25169      -7533.0918     -7533.5509      14903.888     -36560.338    
       580  -36583.067      116.3232       117.52913      92.32          5.0575304      2.8665641     -106.30569     -7609.9598     -7610.4191      14901.462     -36583.067    
       590  -36607.106      116.3232       117.52913      92.32          5.0575304      2.8665641     -161.74269     -7691.4458     -7691.9054      14898.123     -36607.106    
       600  -36637.337      116.1216       117.32544      92.16          5.0487652      2.8615961      124.75256     -7486.9189     -7487.3845      15348.561     -36637.337    
       610  -36659.314      116.1216       117.32544      92.16          5.0487652      2.8615961      72.986854     -7562.3077     -7562.7738      15344.042     -36659.314    
       620  -36681.418      116.1216       117.32544      92.16          5.0487652      2.8615961      20.592907     -7638.2792     -7638.7458      15338.804     -36681.418    
       630  -36709.949      116.1216       117.32544      92.16          5.0487652      2.8615961     -47.552099     -7736.5411     -7737.0084      15330.893     -36709.949    
       640  -36732.43       116.1216       117.32544      92.16          5.0487652      2.8615961     -101.63932     -7814.1262     -7814.5942      15323.802     -36732.43     
       650  -36756.266      116.1216       117.32544      92.16          5.0487652      2.8615961     -159.36325     -7896.548      -7897.0167      15315.475     -36756.266    
       660  -36861.583      115.92         117.12175      92             5.04           2.856628      -59.44878      -7956.7129     -7957.1909      15735.557     -36861.583    
       670  -36880.358      115.92         117.12175      92             5.04           2.856628      -106.84266     -8022.6509     -8023.1298      15725.253     -36880.358    
       680  -36905.195      115.92         117.12175      92             5.04           2.856628      -169.90706     -8110.0111     -8110.4911      15710.781     -36905.195    
       690  -36931.145      115.7184       116.91806      91.84          5.0312348      2.85166        127.21694     -7892.6055     -7893.0923      16167.349     -36931.145    
       700  -36953.412      115.7184       116.91806      91.84          5.0312348      2.85166        69.62288      -7971.6899     -7972.1778      16152.736     -36953.412    
       710  -36976.474      115.7184       116.91806      91.84          5.0312348      2.85166        9.6056707     -8053.7009     -8054.19        16136.708     -36976.474    
       720  -37002.338      115.7184       116.91806      91.84          5.0312348      2.85166       -58.181902     -8145.7843     -8146.2748      16117.513     -37002.338    
       730  -37025.764      115.7184       116.91806      91.84          5.0312348      2.85166       -119.97742     -8229.3023     -8229.7942      16099.164     -37025.764    
       740  -37062.003      115.7184       116.91806      91.84          5.0312348      2.85166       -216.36121     -8358.705      -8359.1989      16068.82      -37062.003    
       750  -37078.099      115.5168       116.71437      91.68          5.0224696      2.846692       107.30008     -8106.6621     -8107.1627      16535.725     -37078.099    
       760  -37100.651      115.5168       116.71437      91.68          5.0224696      2.846692       46.314039     -8187.8873     -8188.3892      16515.219     -37100.651    
       770  -37131.595      115.5168       116.71437      91.68          5.0224696      2.846692      -37.978266     -8299.4526     -8299.9564      16485.474     -37131.595    
       780  -37151.562      115.5168       116.71437      91.68          5.0224696      2.846692      -92.760428     -8371.5017     -8372.0068      16465.227     -37151.562    
       790  -37175.86       115.5168       116.71437      91.68          5.0224696      2.846692      -159.80435     -8459.2735     -8459.7801      16439.641     -37175.86     
       800  -37207.567      115.3152       116.51068      91.52          5.0137043      2.8417239      122.27597     -8263.1892     -8263.7037      16893.721     -37207.567    
       810  -37229.576      115.3152       116.51068      91.52          5.0137043      2.8417239      60.391669     -8343.3414     -8343.8574      16868.374     -37229.576    
       820  -37264.656      115.3152       116.51068      91.52          5.0137043      2.8417239     -38.993579     -8471.2217     -8471.7399      16825.981     -37264.656    
       830  -37281.273      115.3152       116.51068      91.52          5.0137043      2.8417239     -86.419841     -8531.8199     -8532.3393      16804.9       -37281.273    
       840  -37305.718      115.3152       116.51068      91.52          5.0137043      2.8417239     -156.54384     -8621.0405     -8621.5615      16772.97      -37305.718    
       850  -37332.114      115.1136       116.30699      91.36          5.0049391      2.8367559      140.90737     -8405.4012     -8405.9303      17234.054     -37332.114    
       860  -37355.222      115.1136       116.30699      91.36          5.0049391      2.8367559      73.470584     -8490.3536     -8490.8843      17201.65      -37355.222    
       870  -37379.332      115.1136       116.30699      91.36          5.0049391      2.8367559      2.6701582     -8579.0411     -8579.5734      17166.625     -37379.332    
       880  -37441.039      115.1136       116.30699      91.36          5.0049391      2.8367559     -180.48988     -8806.3342     -8806.8709      17071.736     -37441.039    
       890  -37475.738      114.912        116.1033       91.2           4.9961739      2.8317878      92.155222     -8621.1408     -8621.6864      17519.293     -37475.738    
       900  -37499.336      114.912        116.1033       91.2           4.9961739      2.8317878      20.3518       -8708.6014     -8709.1487      17478.806     -37499.336    
       910  -37578.675      114.7104       115.89961      91.04          4.9874087      2.8268198      156.69973     -8688.1451     -8688.7048      17846.949     -37578.675    
       920  -37602.494      114.7104       115.89961      91.04          4.9874087      2.8268198      81.949593     -8776.9503     -8777.5118      17800.311     -37602.494    
       930  -37626.675      114.7104       115.89961      91.04          4.9874087      2.8268198      5.5909        -8867.1224     -8867.6856      17751.581     -37626.675    
       940  -37656.342      114.7104       115.89961      91.04          4.9874087      2.8268198     -88.791837     -8977.7298     -8978.2951      17689.649     -37656.342    
       950  -37682.105      114.7104       115.89961      91.04          4.9874087      2.8268198     -171.36572     -9073.7826     -9074.3497      17634.035     -37682.105    
       960  -37709.948      114.5088       115.69592      90.88          4.9786435      2.8218517      123.01368     -8861.132      -8861.7081      18091.881     -37709.948    
       970  -37734.585      114.5088       115.69592      90.88          4.9786435      2.8218517      42.714267     -8953.4666     -8954.0444      18035.654     -37734.585    
       980  -37759.164      114.5088       115.69592      90.88          4.9786435      2.8218517     -37.958347     -9045.5341     -9046.1136      17977.773     -37759.164    
       990  -37784.803      114.5088       115.69592      90.88          4.9786435      2.8218517     -122.68705     -9141.5487     -9142.13        17915.618     -37784.803    
      1000  -37811.787      114.3072       115.49223      90.72          4.9698783      2.8168837      175.551       -8924.0204     -8924.6108      18375.284     -37811.787    
      1010  -37836.567      114.3072       115.49223      90.72          4.9698783      2.8168837      92.297121     -9017.2334     -9017.8255      18311.95      -37836.567    
      1020  -37861.333      114.3072       115.49223      90.72          4.9698783      2.8168837      8.5499141     -9110.3878     -9110.9815      18247.019     -37861.333    
      1030  -37886.006      114.3072       115.49223      90.72          4.9698783      2.8168837     -75.492171     -9203.1037     -9203.6991      18180.326     -37886.006    
      1040  -37913.199      114.3072       115.49223      90.72          4.9698783      2.8168837     -168.75652     -9305.2681     -9305.8653      18104.864     -37913.199    
      1050  -38076.056      113.904        115.08485      90.4           4.9523478      2.8069476      46.819724     -9279.9969     -9280.6196      18701.076     -38076.056    
      1060  -38121.051      113.904        115.08485      90.4           4.9523478      2.8069476     -117.2157      -9449.4058     -9450.0311      18547.79      -38121.051    
      1070  -38148.817      113.7024       114.88116      90.24          4.9435826      2.8019795      179.69393     -9228.8699     -9229.505       18997.457     -38148.817    
      1080  -38175.012      113.7024       114.88116      90.24          4.9435826      2.8019795      82.313866     -9327.7001     -9328.3365      18902.978     -38175.012    
      1090  -38220.53       113.7024       114.88116      90.24          4.9435826      2.8019795     -88.599434     -9499.2875     -9499.9263      18733.416     -38220.53     
      1100  -38247.926      113.7024       114.88116      90.24          4.9435826      2.8019795     -192.64932     -9602.3247     -9602.9649      18627.342     -38247.926    
      1110  -38301.832      113.5008       114.67747      90.08          4.9348174      2.7970115      3.2429809     -9478.185      -9478.8364      18966.75      -38301.832    
      1120  -38359.634      113.2992       114.47378      89.92          4.9260522      2.7920434      184.2159      -9365.5205     -9366.1833      19284.352     -38359.634    
      1130  -38388.495      113.2992       114.47378      89.92          4.9260522      2.7920434      69.790028     -9474.2749     -9474.9389      19158.584     -38388.495    
      1140  -38419.019      113.2992       114.47378      89.92          4.9260522      2.7920434     -52.32897      -9589.1388     -9589.804       19021.956     -38419.019    
      1150  -38443.069      113.2992       114.47378      89.92          4.9260522      2.7920434     -149.40704     -9679.4698     -9680.136       18911.385     -38443.069    
      1160  -38473.296      113.0976       114.27009      89.76          4.917287       2.7870754      138.50231     -9459.8807     -9460.5572      19335.945     -38473.296    
      1170  -38504.462      113.0976       114.27009      89.76          4.917287       2.7870754      10.455921     -9577.0821     -9577.7597      19186.21      -38504.462    
      1180  -38527.792      113.0976       114.27009      89.76          4.917287       2.7870754     -86.306958     -9664.5848     -9665.2632      19070.927     -38527.792    
      1190  -38561.747      112.896        114.0664       89.6           4.9085217      2.7821073      186.57825     -9455.537      -9456.2259      19471.498     -38561.747    
      1200  -38596.782      112.896        114.0664       89.6           4.9085217      2.7821073      38.396347     -9586.9955     -9587.6854      19289.87      -38596.782    
      1210  -38643.582      112.896        114.0664       89.6           4.9085217      2.7821073     -162.29776     -9762.1151     -9762.8063      19038.028     -38643.582    
      1220  -38669.814      112.6944       113.86271      89.44          4.8997565      2.7771393      142.89287     -9520.4962     -9521.1978      19470.373     -38669.814    
      1230  -38704.822      112.6944       113.86271      89.44          4.8997565      2.7771393     -10.514744     -9651.3711     -9652.0736      19271.9       -38704.822    
      1240  -38736.147      112.6944       113.86271      89.44          4.8997565      2.7771393     -149.45731     -9768.1075     -9768.8106      19088.546     -38736.147    
      1250  -38763.509      112.4928       113.65902      89.28          4.8909913      2.7721712      151.23034     -9526.8169     -9527.5306      19508.039     -38763.509    
      1260  -38799.869      112.4928       113.65902      89.28          4.8909913      2.7721712     -13.262256     -9662.239      -9662.9533      19285.406     -38799.869    
      1270  -38831.09       112.4928       113.65902      89.28          4.8909913      2.7721712     -156.3304      -9778.1249     -9778.8396      19087.973     -38831.09     
      1280  -39012.76       112.09063      113.25268      88.960817      4.8735057      2.7622605     -161.34134     -9756.6597     -9757.3968      19030.033     -39012.76     
      1290  -39043.824      111.88903      113.04899      88.800817      4.8647404      2.7572925      120.91429     -9515.3379     -9516.0859      19394.167     -39043.824    
      1300  -39078.914      111.88903      113.04899      88.800817      4.8647404      2.7572925     -54.841003     -9643.7744     -9644.5224      19123.774     -39078.914    
      1310  -39115.223      111.68743      112.8453       88.640817      4.8559752      2.7523244      201.02883     -9416.7246     -9417.4837      19437.295     -39115.223    
      1320  -39391.049      111.48583      112.64161      88.480817      4.84721        2.7473564     -836.25494     -10070.926     -10071.694      17633.856     -39391.049    
      1330  -40179.521      111.07594      112.22747      88.155507      4.8293887      2.7372554     -6776.0855     -12361.755     -12362.513      4396.0109     -40179.521    
      1340  -40291.302      110.06794      111.20902      87.355507      4.7855626      2.7124151     -4952.3217     -10797.493     -10798.314      6738.8417     -40291.302    
      1350  -40362.163      109.05994      110.19057      86.555507      4.7417365      2.6875749     -2791.8616     -8930.732      -8931.6235      9486.7709     -40362.163    
      1360  -40390.513      108.05194      109.17212      85.755507      4.6979104      2.6627347     -321.06903     -6736.773      -6737.7409      12511.307     -40390.513    
      1370  -40443.397      107.54368      108.65859      85.352127      4.6758122      2.6502096      335.21524     -5440.7623     -5441.763       11888.171     -40443.397    
      1380  -40516.051      107.22512      108.33673      85.099299      4.6619616      2.6423592      101.71977     -4708.8155     -4709.8301      9723.8049     -40516.051    
      1390  -40565.769      106.95247      108.06125      84.882913      4.6501074      2.6356403     -0.043215838   -4140.7483     -4141.7791      8282.3978     -40565.769    
      1400  -40636.368      106.51453      107.61877      84.535339      4.6310664      2.624848      -329.16909     -3208.7841     -3209.8457      5431.1225     -40636.368    
      1410  -40680.565      105.86196      106.95943      84.017425      4.6026937      2.6087667     -2.000745      -1509.822      -1510.9388      3014.7586     -40680.565    
      1420  -40695.684      105.35885      106.45111      83.618135      4.5808196      2.5963686      27.839041     -87.318091     -88.487956      259.32317     -40695.684    
      1430  -40695.776      105.32788      106.41982      83.593552      4.5794728      2.5956053     -0.00052578825  0.34550389    -0.83409268     0.48701142    -40695.776    
      1440  -40695.776      105.32783      106.41977      83.593516      4.5794709      2.5956042      0.004841906    0.53585849    -0.64345341     0.12212063    -40695.776    
      1450  -40695.776      105.32782      106.41976      83.593507      4.5794704      2.5956039      0.0011134009   0.54693918    -0.63238017     0.088781191   -40695.776    
      1460  -40695.776      105.3278       106.41974      83.593492      4.5794696      2.5956034      0.0026689756   0.63789918    -0.54143064    -0.088461609   -40695.776    
      1470  -40695.776      105.32781      106.41975      83.593503      4.5794701      2.5956037      0.0056051492   0.56617604    -0.61316843     0.063807844   -40695.776    
      1480  -40695.776      105.32784      106.41978      83.593527      4.5794715      2.5956045     -0.031758277    0.46362828    -0.71574811     0.156845      -40695.776    
      1490  -40695.776      105.32783      106.41977      83.593513      4.5794707      2.5956041      0.0019134627   0.54297477    -0.63638921     0.099154826   -40695.776    
      1500  -40695.776      105.32782      106.41976      83.593509      4.5794705      2.5956039      0.0013540394   0.56551625    -0.61384212     0.052387982   -40695.776    
      1510  -40695.776      105.32779      106.41973      83.593482      4.579469       2.5956031      0.05382542     0.65614934    -0.52322185     0.028548762   -40695.776    
      1520  -40695.776      105.32782      106.41976      83.593508      4.5794704      2.5956039      0.00067368374  0.59200241    -0.58747524    -0.0025061238  -40695.776    
      1530  -40695.776      105.32785      106.41979      83.593533      4.5794718      2.5956047     -0.010721403    0.44213709    -0.7371946      0.2628933     -40695.776    
      1540  -40695.776      105.32781      106.41975      83.593501      4.5794701      2.5956037     -0.01433501     0.5675936     -0.61166333     0.0010646992  -40695.776    
      1550  -40695.776      105.32781      106.41975      83.593504      4.5794702      2.5956038     -0.00083952081  0.56630412    -0.61314775     0.044325062   -40695.776    
      1560  -40695.776      105.3278       106.41974      83.593492      4.5794695      2.5956034     -0.014405054    0.59985768    -0.58056087    -0.062511973   -40695.776    
      1570  -40695.776      105.32779      106.41973      83.593487      4.5794693      2.5956033      0.02622201     0.64089724    -0.5392744     -0.022956813   -40695.776    
      1580  -40695.776      105.3278       106.41974      83.593496      4.5794698      2.5956035      0.00031421278  0.59246566    -0.58654757    -0.0049754538  -40695.776    
      1590  -40695.776      105.32781      106.41975      83.593497      4.5794698      2.5956036      0.00017767265  0.58744325    -0.59125525     0.0043450127  -40695.776    
      1600  -40695.776      105.32781      106.41975      83.593498      4.5794699      2.5956036     -0.0029367387   0.59346075    -0.58646721    -0.015803746   -40695.776    
      1610  -40695.776      105.32782      106.41976      83.593504      4.5794702      2.5956038     -0.019731318    0.56737748    -0.61049484    -0.01607659    -40695.776    
      1620  -40695.776      105.32781      106.41975      83.593499      4.5794699      2.5956036      0.00023055218  0.58378525    -0.59652325     0.013429653   -40695.776    
      1630  -40695.776      105.32778      106.41972      83.593476      4.5794687      2.5956029     -4.9192842e-06  0.68206675    -0.52504623    -0.15703528    -40695.776    
      1640  -40695.776      105.3278       106.41974      83.593495      4.5794697      2.5956035      9.6545944e-05  0.59807131    -0.57544126    -0.022340409   -40695.776    
      1650  -40695.776      105.32781      106.41975      83.593498      4.5794699      2.5956036     -4.4581638e-05  0.58939714    -0.59078377     0.0012528843  -40695.776    
      1660  -40695.776      105.32781      106.41975      83.5935        4.57947        2.5956037     -0.0098572226   0.5822811     -0.59631735    -0.015535417   -40695.776    
      1670  -40695.776      105.32781      106.41975      83.593498      4.5794699      2.5956036     -3.0680133e-05  0.58740256    -0.59217546     0.0046808589  -40695.776    
      1680  -40695.776      105.32781      106.41975      83.593499      4.5794699      2.5956036     -0.00068512956  0.58353371    -0.59635697     0.010767875   -40695.776    
      1690  -40695.776      105.32781      106.41975      83.593499      4.57947        2.5956036     -0.0013750172   0.57996655    -0.60024739     0.016155793   -40695.776    
      1700  -40695.776      105.32781      106.41975      83.5935        4.57947        2.5956037     -0.0030389618   0.57370057    -0.60710689     0.02428943    -40695.776    
      1710  -40695.776      105.32781      106.41975      83.593504      4.5794702      2.5956038     -0.01303284     0.55267462    -0.6298487      0.038075562   -40695.776    
      1720  -40695.776      105.32781      106.41975      83.593499      4.5794699      2.5956036      0.0022041474   0.58615161    -0.59238051     0.012841346   -40695.776    
      1730  -40695.776      105.32781      106.41975      83.593498      4.5794699      2.5956036      0.00010178901  0.59381707    -0.58695403    -0.0065576741  -40695.776    
      1740  -40695.776      105.32781      106.41975      83.593496      4.5794698      2.5956035      7.4018843e-05  0.59373383    -0.58343323    -0.010078538   -40695.776    
      1750  -40695.776      105.32781      106.41975      83.593499      4.5794699      2.5956036      0.00024121584  0.58720019    -0.59249231     0.0060157676  -40695.776    
      1760  -40695.776      105.3278       106.41974      83.593496      4.5794698      2.5956035      0.00013180446  0.59668122    -0.58247864    -0.013807162   -40695.776    
      1770  -40695.776      105.32781      106.41975      83.593499      4.5794699      2.5956036      2.944718e-05   0.58781027    -0.59212728     0.0044053519  -40695.776    
      1780  -40695.776      105.32781      106.41975      83.593498      4.5794699      2.5956036     -2.9665053e-05  0.59239219    -0.58717983    -0.0053013553  -40695.776    
      1790  -40695.776      105.32781      106.41975      83.593499      4.5794699      2.5956036     -3.8984488e-05  0.58893244    -0.59050464     0.0014552463  -40695.776    
      1800  -40695.776      105.32781      106.41975      83.593498      4.5794699      2.5956036      0.00031950848  0.58950844    -0.58991542     0.0013655059  -40695.776    
      1810  -40695.776      105.32781      106.41975      83.593498      4.5794699      2.5956036     -0.00018689492  0.58854751    -0.59085663     0.0017484355  -40695.776    
      1820  -40695.776      105.32781      106.41975      83.593499      4.57947        2.5956036     -0.0037487928   0.58231809    -0.59710158     0.0035371067  -40695.776    
      1830  -40695.776      105.32781      106.41975      83.593497      4.5794698      2.5956036      0.0032958447   0.59608092    -0.58338632    -0.0028070588  -40695.776    
      1840  -40695.776      105.32781      106.41975      83.593498      4.5794699      2.5956036      2.6893635e-05  0.59030887    -0.58906724    -0.001160947   -40695.776    
      1850  -40695.776      105.32781      106.41975      83.593499      4.5794699      2.5956036     -2.7838429e-05  0.58782132    -0.59160049     0.0036956482  -40695.776    
      1860  -40695.776      105.32781      106.41975      83.593498      4.5794699      2.5956036      0.00010915608  0.58880409    -0.59057781     0.0021011894  -40695.776    
      1870  -40695.776      105.32781      106.41975      83.593499      4.57947        2.5956036      0.0067085732   0.58042051    -0.5989961      0.038701304   -40695.776    
      1880  -40695.776      105.32781      106.41975      83.593498      4.5794699      2.5956036      4.6704717e-05  0.58872678    -0.59066493     0.0020782674  -40695.776    
      1890  -40695.776      105.32781      106.41975      83.593498      4.5794699      2.5956036      0.00022003298  0.58849384    -0.59090923     0.0030754907  -40695.776    
      1900  -40695.776      105.32781      106.41975      83.593498      4.5794699      2.5956036      0.00014025977  0.59062826    -0.58877541    -0.0014320623  -40695.776    
      1910  -40695.776      105.32781      106.41975      83.593498      4.5794699      2.5956036      0.00014202295  0.59003841    -0.58936346    -0.00024888358 -40695.776    
      1920  -40695.776      105.32781      106.41975      83.593498      4.5794699      2.5956036      0.00013769259  0.58942325    -0.58997653     0.00096636171 -40695.776    
      1930  -40695.776      105.32781      106.41975      83.593498      4.5794699      2.5956036      0.00012050553  0.58886538    -0.59053218     0.0020283126  -40695.776    
      1940  -40695.776      105.32781      106.41975      83.593498      4.5794699      2.5956036      8.6939281e-05  0.58856926    -0.59082656     0.0025181122  -40695.776    
      1950  -40695.776      105.32781      106.41975      83.593498      4.5794699      2.5956036      3.6701515e-05  0.58896647    -0.59042997     0.0015736083  -40695.776    
      1960  -40695.776      105.32781      106.41975      83.593498      4.5794699      2.5956036     -0.00034482451  0.58931551    -0.59009621    -0.000253774   -40695.776    
      1970  -40695.776      105.32781      106.41975      83.593498      4.5794699      2.5956036     -0.00066479661  0.58898254    -0.59043017    -0.00054675959 -40695.776    
      1980  -40695.776      105.32781      106.41975      83.593498      4.5794699      2.5956036      4.045442e-05   0.58970062    -0.5897141      0.00013483703 -40695.776    
      1990  -40695.776      105.32781      106.41975      83.593498      4.5794699      2.5956036      8.1730483e-06  0.58847059    -0.59088989     0.0024438185  -40695.776    
      2000  -40695.776      105.32781      106.41975      83.593498      4.5794699      2.5956036      0.00068359348  0.58908464    -0.59040885     0.0033749827  -40695.776    
      2010  -40695.776      105.32781      106.41975      83.593498      4.5794699      2.5956036      5.3007871e-05  0.59130062    -0.58812869    -0.0030129076  -40695.776    
      2020  -40695.776      105.32781      106.41975      83.593499      4.5794699      2.5956036     -0.00054366581  0.58658047    -0.59295439     0.0047429203  -40695.776    
      2030  -40695.776      105.32781      106.41975      83.593499      4.5794699      2.5956036     -0.00064961742  0.58743272    -0.59207654     0.0026949698  -40695.776    
      2040  -40695.776      105.32781      106.41975      83.593499      4.5794699      2.5956036     -0.00089833137  0.58841539    -0.59105194    -5.8443745e-05 -40695.776    
      2050  -40695.776      105.32781      106.41975      83.593498      4.5794699      2.5956036      0.0024242327   0.59412291    -0.58521954    -0.0016306756  -40695.776    
      2060  -40695.776      105.32781      106.41975      83.593498      4.5794699      2.5956036      3.0072985e-06  0.58976821    -0.58963762    -0.00012156898 -40695.776    
      2070  -40695.776      105.32781      106.41975      83.593498      4.5794699      2.5956036      2.0592185e-05  0.58969642    -0.58968905     5.4412305e-05 -40695.776    
      2080  -40695.776      105.32781      106.41975      83.593498      4.5794699      2.5956036      7.1220702e-06  0.58983717    -0.58955184    -0.00026396167 -40695.776    
      2090  -40695.776      105.32781      106.41975      83.593498      4.5794699      2.5956036      4.0983479e-06  0.58900866    -0.5904434      0.0014470336  -40695.776    
      2100  -40695.776      105.32781      106.41975      83.593498      4.5794699      2.5956036      2.6372979e-06  0.58961654    -0.58979633     0.00018770436 -40695.776    
      2110  -40695.776      105.32781      106.41975      83.593498      4.5794699      2.5956036      4.6951694e-06  0.58990155    -0.58951461    -0.00037285122 -40695.776    
      2120  -40695.776      105.32781      106.41975      83.593499      4.5794699      2.5956036      8.5507727e-06  0.58875892    -0.59065511     0.0019218413  -40695.776    
      2130  -40695.776      105.32781      106.41975      83.593498      4.5794699      2.5956036      5.6781141e-06  0.58963752    -0.58974331     0.00012282171 -40695.776    
      2140  -40695.776      105.32781      106.41975      83.593498      4.5794699      2.5956036      3.6481554e-06  0.58992563    -0.58949709    -0.00041759886 -40695.776    
      2150  -40695.776      105.32781      106.41975      83.593498      4.5794699      2.5956036      2.8515897e-06  0.58980483    -0.58959189    -0.00020437754 -40695.776    
      2156  -40695.776      105.32781      106.41975      83.593498      4.5794699      2.5956036      2.0075505e-06  0.58970674    -0.58970119     4.7777708e-07 -40695.776    
Loop time of 31.2137 on 32 procs for 2156 steps with 8064 atoms

98.1% CPU use with 32 MPI tasks x no OpenMP threads

Minimization stats:
  Stopping criterion = energy tolerance
  Energy initial, next-to-last, final = 
       2436.9717206905  -40695.7756248672  -40695.7756248672
  Force two-norm initial, final = 1478661.5 7.1696878e-06
  Force max component initial, final = 1478631.7 3.3707972e-06
  Final line search alpha, max atom move = 1 3.3707972e-06
  Iterations, force evaluations = 2156 2922

MPI task timing breakdown:
Section |  min time  |  avg time  |  max time  |%varavg| %total
---------------------------------------------------------------
Pair    | 18.094     | 19.572     | 21.153     |  25.9 | 62.70
Neigh   | 7.8258     | 7.9678     | 8.1201     |   2.7 | 25.53
Comm    | 0.25736    | 1.7972     | 3.6237     |  95.4 |  5.76
Output  | 1.1786     | 1.1801     | 1.2208     |   0.7 |  3.78
Modify  | 0          | 0          | 0          |   0.0 |  0.00
Other   |            | 0.6969     |            |       |  2.23

Nlocal:            252 ave         264 max         240 min
Histogram: 16 0 0 0 0 0 0 0 0 16
Nghost:            909 ave         922 max         896 min
Histogram: 16 0 0 0 0 0 0 0 0 16
Neighs:              0 ave           0 max           0 min
Histogram: 32 0 0 0 0 0 0 0 0 0
FullNghs:        61110 ave       64020 max       58200 min
Histogram: 16 0 0 0 0 0 0 0 0 16

Total # of neighbors = 1955520
Ave neighs/atom = 242.5
Neighbor list builds = 1846
Dangerous builds = 1618
unfix bb
#initialize velocities

velocity all create $T 23121 mom yes rot yes dist gaussian units box
velocity all create 300 23121 mom yes rot yes dist gaussian units box

# ======= thermal equilibration =======

fix				NVE all nve
fix				ts all temp/rescale 1 $T $T $(100.0*dt) 1.0
fix				ts all temp/rescale 1 300 $T $(100.0*dt) 1.0
fix				ts all temp/rescale 1 300 300 $(100.0*dt) 1.0
fix				ts all temp/rescale 1 300 300 0.010000000000000000208 1.0
run				5000
Per MPI rank memory allocation (min/avg/max) = 8.037 | 8.038 | 8.04 Mbytes
   Step         PotEng           Lx             Ly             Lz            v_la           v_lb          Press           Pxx            Pyy            Pzz          c_eatoms   
      2156  -40695.776      105.32781      106.41975      83.593498      4.5794699      2.5956036      356.42149      358.92576      357.63531      352.70339     -40695.776    
      2160  -40690.761      105.32781      106.41975      83.593498      4.5794699      2.5956036      362.02084      367.05896      370.75096      348.25259     -40690.761    
      2170  -40638.317      105.32781      106.41975      83.593498      4.5794699      2.5956036      455.24013      477.80644      495.14023      392.77374     -40638.317    
      2180  -40550.014      105.32781      106.41975      83.593498      4.5794699      2.5956036      593.20179      693.51303      726.52686      359.56549     -40550.014    
      2190  -40462.479      105.32781      106.41975      83.593498      4.5794699      2.5956036      675.87941      970.87344      1020.7626      36.002232     -40462.479    
      2200  -40396.712      105.32781      106.41975      83.593498      4.5794699      2.5956036      688.72881      1256.9373      1321.7925     -512.54344     -40396.712    
      2210  -40343.771      105.32781      106.41975      83.593498      4.5794699      2.5956036      736.39764      1522.8068      1597.6598     -911.27369     -40343.771    
      2220  -40288.708      105.32781      106.41975      83.593498      4.5794699      2.5956036      927.73729      1748.8925      1827.3345     -793.01514     -40288.708    
      2230  -40231.308      105.32781      106.41975      83.593498      4.5794699      2.5956036      1259.3123      1913.8311      1985.016      -120.91035     -40231.308    
      2240  -40195.749      105.32781      106.41975      83.593498      4.5794699      2.5956036      1576.4701      1989.0218      2041.8655      698.5229      -40195.749    
      2250  -40220.018      105.32781      106.41975      83.593498      4.5794699      2.5956036      1661.7682      1935.3629      1973.8364      1076.1054     -40220.018    
      2260  -40295.808      105.32781      106.41975      83.593498      4.5794699      2.5956036      1472.7197      1781.639       1811.2683      825.25183     -40295.808    
      2270  -40363.69       105.32781      106.41975      83.593498      4.5794699      2.5956036      1203.9943      1624.829       1644.6158      342.53817     -40363.69     
      2280  -40384.1        105.32781      106.41975      83.593498      4.5794699      2.5956036      1020.8527      1503.3793      1510.8979      48.280909     -40384.1      
      2290  -40356.966      105.32781      106.41975      83.593498      4.5794699      2.5956036      956.03252      1429.8407      1422.9726      15.284292     -40356.966    
      2300  -40313.475      105.32781      106.41975      83.593498      4.5794699      2.5956036      923.51977      1399.2956      1381.1274     -9.8637006     -40313.475    
      2310  -40297.903      105.32781      106.41975      83.593498      4.5794699      2.5956036      806.66028      1378.3817      1352.567      -310.96784     -40297.903    
      2320  -40319.232      105.32781      106.41975      83.593498      4.5794699      2.5956036      626.80113      1361.4204      1330.8395     -811.85648     -40319.232    
      2330  -40343.728      105.32781      106.41975      83.593498      4.5794699      2.5956036      539.29909      1377.6843      1343.6527     -1103.4397     -40343.728    
      2340  -40342.838      105.32781      106.41975      83.593498      4.5794699      2.5956036      660.71908      1434.5666      1397.4464     -849.85586     -40342.838    
      2350  -40311.923      105.32781      106.41975      83.593498      4.5794699      2.5956036      981.70829      1525.2311      1485.5245     -65.630697     -40311.923    
      2360  -40271.482      105.32781      106.41975      83.593498      4.5794699      2.5956036      1357.2674      1633.2748      1590.554       847.97345     -40271.482    
      2370  -40261.735      105.32781      106.41975      83.593498      4.5794699      2.5956036      1561.3789      1708.4705      1661.6325      1314.0337     -40261.735    
      2380  -40296.27       105.32781      106.41975      83.593498      4.5794699      2.5956036      1491.5077      1715.6007      1665.4236      1093.4989     -40296.27     
      2390  -40336.288      105.32781      106.41975      83.593498      4.5794699      2.5956036      1281.1303      1684.8106      1633.6263      524.95391     -40336.288    
      2400  -40346.032      105.32781      106.41975      83.593498      4.5794699      2.5956036      1097.9679      1640.1524      1590.2268      63.524495     -40346.032    
      2410  -40325.614      105.32781      106.41975      83.593498      4.5794699      2.5956036      986.42066      1585.2402      1537.3522     -163.33045     -40325.614    
      2420  -40305.479      105.32781      106.41975      83.593498      4.5794699      2.5956036      873.71335      1508.3776      1463.8921     -351.12965     -40305.479    
      2430  -40322.259      105.32781      106.41975      83.593498      4.5794699      2.5956036      674.6813       1386.3434      1349.953      -712.25255     -40322.259    
      2440  -40373.92       105.32781      106.41975      83.593498      4.5794699      2.5956036      435.90688      1243.6671      1221.3414     -1157.2879     -40373.92     
      2450  -40422.454      105.32781      106.41975      83.593498      4.5794699      2.5956036      306.68052      1135.3606      1130.0916     -1345.4106     -40422.454    
      2460  -40439.717      105.32781      106.41975      83.593498      4.5794699      2.5956036      385.02525      1082.2847      1094.2782     -1021.4871     -40439.717    
      2470  -40421.252      105.32781      106.41975      83.593498      4.5794699      2.5956036      656.17838      1084.4718      1113.1946     -229.13124     -40421.252    
      2480  -40384.195      105.32781      106.41975      83.593498      4.5794699      2.5956036      996.02395      1132.6329      1177.6592      677.77977     -40384.195    
      2490  -40362.302      105.32781      106.41975      83.593498      4.5794699      2.5956036      1217.9484      1194.9003      1255.8865      1203.0583     -40362.302    
      2500  -40371.94       105.32781      106.41975      83.593498      4.5794699      2.5956036      1224.9215      1245.4794      1319.0494      1110.2356     -40371.94     
      2510  -40385.508      105.32781      106.41975      83.593498      4.5794699      2.5956036      1112.0362      1298.3341      1377.5565      660.21791     -40385.508    
      2520  -40371.667      105.32781      106.41975      83.593498      4.5794699      2.5956036      1024.9111      1364.831       1444.3784      265.52367     -40371.667    
      2530  -40330.386      105.32781      106.41975      83.593498      4.5794699      2.5956036      1006.4884      1440.4191      1514.1531      64.892833     -40330.386    
      2540  -40291.523      105.32781      106.41975      83.593498      4.5794699      2.5956036      986.46281      1505.1838      1563.5988     -109.3942      -40291.523    
      2550  -40291.751      105.32781      106.41975      83.593498      4.5794699      2.5956036      879.39342      1520.5152      1555.127      -437.46197     -40291.751    
      2560  -40331.795      105.32781      106.41975      83.593498      4.5794699      2.5956036      709.81693      1480.2854      1485.9421     -836.77676     -40331.795    
      2570  -40376.275      105.32781      106.41975      83.593498      4.5794699      2.5956036      618.12487      1422.945       1397.9505     -966.52087     -40376.275    
      2580  -40397.702      105.32781      106.41975      83.593498      4.5794699      2.5956036      701.71055      1370.7621      1320.478      -586.10844     -40397.702    
      2590  -40391.603      105.32781      106.41975      83.593498      4.5794699      2.5956036      938.13517      1328.1937      1257.8838      228.3281      -40391.603    
      2600  -40372.718      105.32781      106.41975      83.593498      4.5794699      2.5956036      1202.6478      1295.6539      1207.9197      1104.37       -40372.718    
      2610  -40369.831      105.32781      106.41975      83.593498      4.5794699      2.5956036      1320.5087      1257.4471      1153.0318      1551.0472     -40369.831    
      2620  -40396.503      105.32781      106.41975      83.593498      4.5794699      2.5956036      1210.0532      1206.8793      1087.1459      1336.1345     -40396.503    
      2630  -40425.712      105.32781      106.41975      83.593498      4.5794699      2.5956036      975.16154      1170.9579      1040.4179      714.10882     -40425.712    
      2640  -40425.789      105.32781      106.41975      83.593498      4.5794699      2.5956036      765.81376      1167.0753      1032.1925      98.173481     -40425.789    
      2650  -40396.183      105.32781      106.41975      83.593498      4.5794699      2.5956036      634.12592      1191.8253      1058.9785     -348.42605     -40396.183    
      2660  -40362.685      105.32781      106.41975      83.593498      4.5794699      2.5956036      536.6502       1228.3964      1104.8791     -723.32491     -40362.685    
      2670  -40354.173      105.32781      106.41975      83.593498      4.5794699      2.5956036      418.53686      1248.6868      1142.7962     -1135.8724     -40354.173    
      2680  -40372.613      105.32781      106.41975      83.593498      4.5794699      2.5956036      310.67197      1246.5379      1165.7728     -1480.2948     -40372.613    
      2690  -40393.326      105.32781      106.41975      83.593498      4.5794699      2.5956036      320.66975      1245.274       1193.0197     -1476.2845     -40393.326    
      2700  -40394.893      105.32781      106.41975      83.593498      4.5794699      2.5956036      508.58415      1261.7357      1237.8229     -973.80621     -40394.893    
      2710  -40372.926      105.32781      106.41975      83.593498      4.5794699      2.5956036      849.217        1301.0649      1303.7504     -57.164298     -40372.926    
      2720  -40339.396      105.32781      106.41975      83.593498      4.5794699      2.5956036      1222.9465      1359.9615      1385.0887      923.78924     -40339.396    
      2730  -40320.605      105.32781      106.41975      83.593498      4.5794699      2.5956036      1453.687       1413.1254      1453.4002      1494.5354     -40320.605    
      2740  -40334.319      105.32781      106.41975      83.593498      4.5794699      2.5956036      1436.2354      1433.9855      1481.6314      1393.0893     -40334.319    
      2750  -40357.741      105.32781      106.41975      83.593498      4.5794699      2.5956036      1254.219       1439.8841      1489.893       832.88002     -40357.741    
      2760  -40357.115      105.32781      106.41975      83.593498      4.5794699      2.5956036      1063.3216      1451.0442      1501.5292      237.39151     -40357.115    
      2770  -40332.808      105.32781      106.41975      83.593498      4.5794699      2.5956036      922.14678      1459.7584      1510.1787     -203.49675     -40332.808    
      2780  -40312.196      105.32781      106.41975      83.593498      4.5794699      2.5956036      793.40173      1442.852       1493.5483     -556.19508     -40312.196    
      2790  -40320.642      105.32781      106.41975      83.593498      4.5794699      2.5956036      633.71116      1379.2369      1431.2476     -909.35102     -40320.642    
      2800  -40356.555      105.32781      106.41975      83.593498      4.5794699      2.5956036      490.05344      1281.2728      1333.3734     -1144.4859     -40356.555    
      2810  -40395.496      105.32781      106.41975      83.593498      4.5794699      2.5956036      466.52277      1184.3141      1233.1013     -1017.8471     -40395.496    
      2820  -40416.808      105.32781      106.41975      83.593498      4.5794699      2.5956036      594.44914      1111.3342      1153.3284     -481.31521     -40416.808    
      2830  -40415.694      105.32781      106.41975      83.593498      4.5794699      2.5956036      850.32851      1072.781       1104.5288      373.67574     -40415.694    
      2840  -40399.166      105.32781      106.41975      83.593498      4.5794699      2.5956036      1133.5915      1073.829       1092.2999      1234.6456     -40399.166    
      2850  -40384.193      105.32781      106.41975      83.593498      4.5794699      2.5956036      1306.7329      1107.4321      1110.7916      1701.9749     -40384.193    
      2860  -40386.487      105.32781      106.41975      83.593498      4.5794699      2.5956036      1279.202       1156.4756      1144.8099      1536.3205     -40386.487    
      2870  -40393.765      105.32781      106.41975      83.593498      4.5794699      2.5956036      1105.7392      1222.9887      1197.8314      896.39755     -40393.765    
      2880  -40377.62       105.32781      106.41975      83.593498      4.5794699      2.5956036      919.79348      1317.7642      1281.3823      160.23396     -40377.62     
      2890  -40336.966      105.32781      106.41975      83.593498      4.5794699      2.5956036      785.19616      1430.1685      1383.727      -458.30703     -40336.966    
      2900  -40297.252      105.32781      106.41975      83.593498      4.5794699      2.5956036      674.25759      1527.98        1472.0386     -977.24587     -40297.252    
      2910  -40283.823      105.32781      106.41975      83.593498      4.5794699      2.5956036      551.16659      1571.4726      1507.605      -1425.5779     -40283.823    
      2920  -40300.922      105.32781      106.41975      83.593498      4.5794699      2.5956036      449.76619      1544.5908      1476.3454     -1671.6376     -40300.922    
      2930  -40332.68       105.32781      106.41975      83.593498      4.5794699      2.5956036      487.65319      1465.1296      1395.5724     -1397.7424     -40332.68     
      2940  -40359.452      105.32781      106.41975      83.593498      4.5794699      2.5956036      621.71268      1360.8689      1294.062      -789.79284     -40359.452    
      2950  -40376.135      105.32781      106.41975      83.593498      4.5794699      2.5956036      838.53731      1249.6917      1190.0607      75.859593     -40376.135    
      2960  -40384.715      105.32781      106.41975      83.593498      4.5794699      2.5956036      1052.0065      1146.6308      1094.888       914.50077     -40384.715    
      2970  -40393.903      105.32781      106.41975      83.593498      4.5794699      2.5956036      1154.1424      1061.4534      1019.9796      1380.9941     -40393.903    
      2980  -40414.933      105.32781      106.41975      83.593498      4.5794699      2.5956036      1074.0646      993.92216      967.29155      1260.9801     -40414.933    
      2990  -40439.257      105.32781      106.41975      83.593498      4.5794699      2.5956036      862.89114      959.03367      950.80036      678.83939     -40439.257    
      3000  -40441.037      105.32781      106.41975      83.593498      4.5794699      2.5956036      644.86246      978.86617      989.80906     -34.087861     -40441.037    
      3010  -40416.093      105.32781      106.41975      83.593498      4.5794699      2.5956036      498.59441      1051.3937      1080.5111     -636.12158     -40416.093    
      3020  -40381.549      105.32781      106.41975      83.593498      4.5794699      2.5956036      427.36252      1156.3339      1201.9995     -1076.2458     -40381.549    
      3030  -40354.549      105.32781      106.41975      83.593498      4.5794699      2.5956036      422.5434       1269.0258      1327.4227     -1328.8183     -40354.549    
      3040  -40340.983      105.32781      106.41975      83.593498      4.5794699      2.5956036      504.79051      1368.981       1435.0048     -1289.6143     -40340.983    
      3050  -40334.561      105.32781      106.41975      83.593498      4.5794699      2.5956036      727.26101      1448.7614      1516.8603     -783.83865     -40334.561    
      3060  -40325.505      105.32781      106.41975      83.593498      4.5794699      2.5956036      1024.9855      1508.4563      1570.7202     -4.2200392     -40325.505    
      3070  -40312.877      105.32781      106.41975      83.593498      4.5794699      2.5956036      1358.9937      1544.6438      1594.4891      937.8483      -40312.877    
      3080  -40299.935      105.32781      106.41975      83.593498      4.5794699      2.5956036      1634.9776      1556.0195      1589.6931      1759.2203     -40299.935    
      3090  -40295.29       105.32781      106.41975      83.593498      4.5794699      2.5956036      1739.138       1539.8708      1556.6208      2120.9223     -40295.29     
      3100  -40311.37       105.32781      106.41975      83.593498      4.5794699      2.5956036      1610.6362      1489.4076      1489.9856      1852.5155     -40311.37     
      3110  -40341.526      105.32781      106.41975      83.593498      4.5794699      2.5956036      1302.4813      1418.2531      1403.5708      1085.62       -40341.526    
      3120  -40360.959      105.32781      106.41975      83.593498      4.5794699      2.5956036      946.20575      1354.5127      1324.8839      159.22062     -40360.959    
      3130  -40364.218      105.32781      106.41975      83.593498      4.5794699      2.5956036      637.65618      1304.6687      1259.9837     -651.6839      -40364.218    
      3140  -40363.352      105.32781      106.41975      83.593498      4.5794699      2.5956036      406.89984      1261.0385      1201.7632     -1242.1022     -40363.352    
      3150  -40368.775      105.32781      106.41975      83.593498      4.5794699      2.5956036      272.93711      1217.2709      1145.9568     -1544.4163     -40368.775    
      3160  -40382.137      105.32781      106.41975      83.593498      4.5794699      2.5956036      262.70749      1172.716       1092.5654     -1477.1589     -40382.137    
      3170  -40395.511      105.32781      106.41975      83.593498      4.5794699      2.5956036      384.27381      1137.6177      1054.3511     -1039.1474     -40395.511    
      3180  -40401.112      105.32781      106.41975      83.593498      4.5794699      2.5956036      595.38754      1118.5264      1036.6927     -369.05646     -40401.112    
      3190  -40397.474      105.32781      106.41975      83.593498      4.5794699      2.5956036      855.34295      1118.077       1041.0456      406.90619     -40397.474    
      3200  -40386.555      105.32781      106.41975      83.593498      4.5794699      2.5956036      1087.1619      1137.6603      1066.1637      1057.6618     -40386.555    
      3210  -40373.909      105.32781      106.41975      83.593498      4.5794699      2.5956036      1206.668       1173.0599      1106.8126      1340.1315     -40373.909    
      3220  -40369.05       105.32781      106.41975      83.593498      4.5794699      2.5956036      1167.4982      1211.6273      1151.0804      1139.787      -40369.05     
      3230  -40372.893      105.32781      106.41975      83.593498      4.5794699      2.5956036      982.5298       1244.171       1191.6998      511.71861     -40372.893    
      3240  -40373.344      105.32781      106.41975      83.593498      4.5794699      2.5956036      746.45959      1273.8287      1233.0621     -267.51198     -40373.344    
      3250  -40365.01       105.32781      106.41975      83.593498      4.5794699      2.5956036      544.00963      1299.8705      1275.0178     -942.85935     -40365.01     
      3260  -40355.469      105.32781      106.41975      83.593498      4.5794699      2.5956036      419.41291      1312.3053      1306.6185     -1360.6851     -40355.469    
      3270  -40353.22       105.32781      106.41975      83.593498      4.5794699      2.5956036      388.44211      1302.5591      1316.7002     -1453.9329     -40353.22     
      3280  -40361.573      105.32781      106.41975      83.593498      4.5794699      2.5956036      471.77797      1268.5855      1301.641      -1154.8927     -40361.573    
      3290  -40374.875      105.32781      106.41975      83.593498      4.5794699      2.5956036      642.94292      1221.7914      1269.9787     -562.94136     -40374.875    
      3300  -40386.526      105.32781      106.41975      83.593498      4.5794699      2.5956036      863.15108      1176.6448      1232.7059      180.1025      -40386.526    
      3310  -40393.03       105.32781      106.41975      83.593498      4.5794699      2.5956036      1085.5832      1144.254       1199.3987      913.09675     -40393.03     
      3320  -40392.755      105.32781      106.41975      83.593498      4.5794699      2.5956036      1255.902       1133.2476      1179.0526      1455.4057     -40392.755    
      3330  -40387.025      105.32781      106.41975      83.593498      4.5794699      2.5956036      1323.5937      1147.8778      1176.9482      1645.9551     -40387.025    
      3340  -40380.931      105.32781      106.41975      83.593498      4.5794699      2.5956036      1259.967       1184.1049      1192.8155      1402.9806     -40380.931    
      3350  -40378.16       105.32781      106.41975      83.593498      4.5794699      2.5956036      1074.2319      1232.6687      1220.2442      769.78291     -40378.16     
      3360  -40374.372      105.32781      106.41975      83.593498      4.5794699      2.5956036      838.79089      1288.2501      1254.2886     -26.165972     -40374.372    
      3370  -40363.412      105.32781      106.41975      83.593498      4.5794699      2.5956036      641.83908      1347.0835      1292.5641     -714.1304      -40363.412    
      3380  -40348.049      105.32781      106.41975      83.593498      4.5794699      2.5956036      531.9497       1399.9481      1327.2387     -1131.3376     -40348.049    
      3390  -40336.158      105.32781      106.41975      83.593498      4.5794699      2.5956036      527.90934      1431.3057      1346.3631     -1193.9408     -40336.158    
      3400  -40332.8        105.32781      106.41975      83.593498      4.5794699      2.5956036      625.214        1432.8884      1342.4195     -899.66584     -40332.8      
      3410  -40337.096      105.32781      106.41975      83.593498      4.5794699      2.5956036      777.75764      1411.2699      1316.0821     -394.07901     -40337.096    
      3420  -40346.51       105.32781      106.41975      83.593498      4.5794699      2.5956036      958.74259      1373.6935      1273.6435      228.89078     -40346.51     
      3430  -40357.013      105.32781      106.41975      83.593498      4.5794699      2.5956036      1097.2975      1326.3116      1222.1597      743.42127     -40357.013    
      3440  -40365.354      105.32781      106.41975      83.593498      4.5794699      2.5956036      1159.6166      1270.9678      1171.1745      1036.7075     -40365.354    
      3450  -40371.024      105.32781      106.41975      83.593498      4.5794699      2.5956036      1127.1792      1218.8446      1127.2216      1035.4714     -40371.024    
      3460  -40375.946      105.32781      106.41975      83.593498      4.5794699      2.5956036      985.69611      1171.872       1091.9708      693.24553     -40375.946    
      3470  -40385.054      105.32781      106.41975      83.593498      4.5794699      2.5956036      749.74235      1128.861       1063.0946      57.271419     -40385.054    
      3480  -40396.936      105.32781      106.41975      83.593498      4.5794699      2.5956036      489.93846      1092.398       1043.2316     -665.81425     -40396.936    
      3490  -40402.281      105.32781      106.41975      83.593498      4.5794699      2.5956036      295.43365      1071.2012      1040.9591     -1225.8594     -40402.281    
      3500  -40398.722      105.32781      106.41975      83.593498      4.5794699      2.5956036      222.4228       1067.5424      1057.6244     -1457.8984     -40398.722    
      3510  -40390.792      105.32781      106.41975      83.593498      4.5794699      2.5956036      284.68282      1077.9947      1089.1645     -1313.1107     -40390.792    
      3520  -40382.709      105.32781      106.41975      83.593498      4.5794699      2.5956036      460.89477      1099.0242      1131.2235     -847.56341     -40382.709    
      3530  -40376.434      105.32781      106.41975      83.593498      4.5794699      2.5956036      695.58995      1129.5345      1180.4836     -223.24827     -40376.434    
      3540  -40371.734      105.32781      106.41975      83.593498      4.5794699      2.5956036      943.8212       1170.3301      1235.145       425.98848     -40371.734    
      3550  -40365.249      105.32781      106.41975      83.593498      4.5794699      2.5956036      1156.2125      1222.6184      1295.284       950.73525     -40365.249    
      3560  -40354.637      105.32781      106.41975      83.593498      4.5794699      2.5956036      1300.5069      1284.414       1359.5485      1257.558      -40354.637    
      3570  -40340.689      105.32781      106.41975      83.593498      4.5794699      2.5956036      1355.1179      1349.7869      1422.4262      1293.1405     -40340.689    
      3580  -40327.191      105.32781      106.41975      83.593498      4.5794699      2.5956036      1298.0629      1409.672       1474.9608      1009.5559     -40327.191    
      3590  -40323.26       105.32781      106.41975      83.593498      4.5794699      2.5956036      1135.8006      1447.6688      1501.4046      458.3286      -40323.26     
      3600  -40332.612      105.32781      106.41975      83.593498      4.5794699      2.5956036      918.85039      1451.8438      1490.8853     -186.17793     -40332.612    
      3610  -40344.458      105.32781      106.41975      83.593498      4.5794699      2.5956036      728.71038      1429.0664      1450.0397     -692.97497     -40344.458    
      3620  -40352.748      105.32781      106.41975      83.593498      4.5794699      2.5956036      638.8642       1386.447       1386.9938     -856.84815     -40352.748    
      3630  -40359.47       105.32781      106.41975      83.593498      4.5794699      2.5956036      655.57607      1327.4927      1307.238      -668.00246     -40359.47     
      3640  -40368.536      105.32781      106.41975      83.593498      4.5794699      2.5956036      744.66068      1258.026       1218.2796     -242.32347     -40368.536    
      3650  -40381.922      105.32781      106.41975      83.593498      4.5794699      2.5956036      850.60845      1187.8056      1130.9587      233.06105     -40381.922    
      3660  -40396.431      105.32781      106.41975      83.593498      4.5794699      2.5956036      937.35791      1128.8303      1058.2703      624.97312     -40396.431    
      3670  -40406.45       105.32781      106.41975      83.593498      4.5794699      2.5956036      981.23474      1091.4205      1011.698       840.58569     -40406.45     
      3680  -40408.029      105.32781      106.41975      83.593498      4.5794699      2.5956036      977.00841      1080.8703      997.70921      852.44576     -40408.029    
      3690  -40399.998      105.32781      106.41975      83.593498      4.5794699      2.5956036      921.34525      1097.0625      1015.3479      651.62536     -40399.998    
      3700  -40385.068      105.32781      106.41975      83.593498      4.5794699      2.5956036      814.98657      1137.5237      1060.7932      246.64273     -40385.068    
      3710  -40371.416      105.32781      106.41975      83.593498      4.5794699      2.5956036      671.45572      1191.5867      1122.8443     -300.06383     -40371.416    
      3720  -40364.146      105.32781      106.41975      83.593498      4.5794699      2.5956036      518.04352      1244.0736      1187.3325     -877.27552     -40364.146    
      3730  -40356.888      105.32781      106.41975      83.593498      4.5794699      2.5956036      428.15457      1289.0933      1250.3781     -1255.0077     -40356.888    
      3740  -40344.07       105.32781      106.41975      83.593498      4.5794699      2.5956036      451.01443      1324.6982      1308.6429     -1280.2979     -40344.07     
      3750  -40329.4        105.32781      106.41975      83.593498      4.5794699      2.5956036      580.5215       1344.9248      1352.9841     -956.34442     -40329.4      
      3760  -40320.78       105.32781      106.41975      83.593498      4.5794699      2.5956036      762.46055      1341.9439      1373.2289     -427.79112     -40320.78     
      3770  -40322.896      105.32781      106.41975      83.593498      4.5794699      2.5956036      924.43223      1316.9744      1365.4495      90.872798     -40322.896    
      3780  -40334.588      105.32781      106.41975      83.593498      4.5794699      2.5956036      1042.4266      1279.6466      1334.4931      513.13994     -40334.588    
      3790  -40350.173      105.32781      106.41975      83.593498      4.5794699      2.5956036      1081.2327      1239.0338      1291.1337      713.5307      -40350.173    
      3800  -40363.263      105.32781      106.41975      83.593498      4.5794699      2.5956036      1052.3249      1204.2457      1247.1996      705.52949     -40363.263    
      3810  -40371.16       105.32781      106.41975      83.593498      4.5794699      2.5956036      971.5273       1178.0967      1210.3024      526.18279     -40371.16     
      3820  -40375.442      105.32781      106.41975      83.593498      4.5794699      2.5956036      856.3494       1161.0766      1182.8145      225.15707     -40375.442    
      3830  -40381.539      105.32781      106.41975      83.593498      4.5794699      2.5956036      716.68451      1149.7995      1162.028      -161.77401     -40381.539    
      3840  -40392.76       105.32781      106.41975      83.593498      4.5794699      2.5956036      585.42878      1141.4383      1145.6297     -530.78171     -40392.76     
      3850  -40401.344      105.32781      106.41975      83.593498      4.5794699      2.5956036      527.33138      1141.9147      1140.052      -699.97249     -40401.344    
      3860  -40399.263      105.32781      106.41975      83.593498      4.5794699      2.5956036      576.63284      1157.9572      1151.4392     -579.49788     -40399.263    
      3870  -40388.394      105.32781      106.41975      83.593498      4.5794699      2.5956036      722.41606      1189.1532      1176.3137     -198.21865     -40388.394    
      3880  -40375.386      105.32781      106.41975      83.593498      4.5794699      2.5956036      913.3337       1229.7965      1207.6395      302.56507     -40375.386    
      3890  -40365.3        105.32781      106.41975      83.593498      4.5794699      2.5956036      1082.3796      1273.0602      1240.2953      733.78314     -40365.3      
      3900  -40360.306      105.32781      106.41975      83.593498      4.5794699      2.5956036      1188.889       1313.8657      1269.3635      983.43787     -40360.306    
      3910  -40357.605      105.32781      106.41975      83.593498      4.5794699      2.5956036      1213.738       1350.3998      1293.1499      997.66436     -40357.605    
      3920  -40352.769      105.32781      106.41975      83.593498      4.5794699      2.5956036      1168.5451      1381.8275      1314.0936      809.7141      -40352.769    
      3930  -40346.492      105.32781      106.41975      83.593498      4.5794699      2.5956036      1063.6588      1400.6266      1322.3105      468.03941     -40346.492    
      3940  -40341.276      105.32781      106.41975      83.593498      4.5794699      2.5956036      916.28438      1400.2365      1312.0079      36.608741     -40341.276    
      3950  -40341.396      105.32781      106.41975      83.593498      4.5794699      2.5956036      752.46413      1383.7718      1286.3075     -412.68684     -40341.396    
      3960  -40351.663      105.32781      106.41975      83.593498      4.5794699      2.5956036      596.63504      1332.7945      1238.2804     -781.16976     -40351.663    
      3970  -40365.894      105.32781      106.41975      83.593498      4.5794699      2.5956036      496.44559      1260.7651      1177.8076     -949.23591     -40365.894    
      3980  -40375.321      105.32781      106.41975      83.593498      4.5794699      2.5956036      490.69769      1188.2709      1120.1489     -836.32667     -40375.321    
      3990  -40379.07       105.32781      106.41975      83.593498      4.5794699      2.5956036      566.20008      1122.5478      1073.4089     -497.35652     -40379.07     
      4000  -40380.818      105.32781      106.41975      83.593498      4.5794699      2.5956036      677.22774      1068.633       1040.9352     -77.884942     -40380.818    
      4010  -40384.045      105.32781      106.41975      83.593498      4.5794699      2.5956036      771.88978      1031.8953      1024.5573      259.21679     -40384.045    
      4020  -40389.177      105.32781      106.41975      83.593498      4.5794699      2.5956036      820.79759      1017.6687      1027.5699      417.15423     -40389.177    
      4030  -40391.96       105.32781      106.41975      83.593498      4.5794699      2.5956036      817.58916      1027.6435      1049.0773      376.04668     -40391.96     
      4040  -40388.48       105.32781      106.41975      83.593498      4.5794699      2.5956036      781.59745      1062.2794      1089.4061      193.10681     -40388.48     
      4050  -40379.472      105.32781      106.41975      83.593498      4.5794699      2.5956036      735.28935      1118.521       1147.5948     -60.247727     -40379.472    
      4060  -40367.013      105.32781      106.41975      83.593498      4.5794699      2.5956036      691.6095       1188.9907      1215.3777     -329.53983     -40367.013    
      4070  -40354.653      105.32781      106.41975      83.593498      4.5794699      2.5956036      668.35675      1262.6984      1281.4338     -539.06199     -40354.653    
      4080  -40348.366      105.32781      106.41975      83.593498      4.5794699      2.5956036      676.75288      1324.1601      1331.4612     -625.36268     -40348.366    
      4090  -40347.394      105.32781      106.41975      83.593498      4.5794699      2.5956036      727.23776      1363.3963      1358.2176     -539.90069     -40347.394    
      4100  -40345.879      105.32781      106.41975      83.593498      4.5794699      2.5956036      831.83594      1380.1739      1363.6578     -248.32385     -40345.879    
      4110  -40342.964      105.32781      106.41975      83.593498      4.5794699      2.5956036      977.61469      1378.0933      1353.1466      201.60414     -40342.964    
      4120  -40342.538      105.32781      106.41975      83.593498      4.5794699      2.5956036      1111.5608      1359.7594      1327.6526      647.27043     -40342.538    
      4130  -40348.228      105.32781      106.41975      83.593498      4.5794699      2.5956036      1178.7183      1328.9593      1287.0273      920.16833     -40348.228    
      4140  -40359.672      105.32781      106.41975      83.593498      4.5794699      2.5956036      1166.991       1296.031       1237.544       967.39811     -40359.672    
      4150  -40372.488      105.32781      106.41975      83.593498      4.5794699      2.5956036      1084.3386      1263.1757      1188.8986      800.94171     -40372.488    
      4160  -40382.24       105.32781      106.41975      83.593498      4.5794699      2.5956036      955.65847      1235.1259      1148.33        483.51959     -40382.24     
      4170  -40388.197      105.32781      106.41975      83.593498      4.5794699      2.5956036      815.31612      1218.099       1118.1326      109.71672     -40388.197    
      4180  -40389.916      105.32781      106.41975      83.593498      4.5794699      2.5956036      692.22857      1211.3814      1099.7958     -234.49151     -40389.916    
      4190  -40387.54       105.32781      106.41975      83.593498      4.5794699      2.5956036      614.61216      1213.5212      1093.8118     -463.49647     -40387.54     
[...]
     16140  -40367.334      105.32781      106.41975      83.593498      4.5794699      2.5956036      565.7416       757.14518      822.66846      117.41115     -40367.334    
     16150  -40366.743      105.32781      106.41975      83.593498      4.5794699      2.5956036      564.06324      760.0174       813.03441      119.13791     -40366.743    
     16160  -40366.338      105.32781      106.41975      83.593498      4.5794699      2.5956036      550.94885      763.30343      807.67569      81.867441     -40366.338    
     16170  -40365.774      105.32781      106.41975      83.593498      4.5794699      2.5956036      530.5394       766.96282      806.6057       18.04969      -40365.774    
     16180  -40365.189      105.32781      106.41975      83.593498      4.5794699      2.5956036      508.97473      770.6028       808.92295     -52.60156      -40365.189    
     16190  -40364.42       105.32781      106.41975      83.593498      4.5794699      2.5956036      492.3367       773.09375      813.08929     -109.17294     -40364.42     
     16200  -40363.712      105.32781      106.41975      83.593498      4.5794699      2.5956036      483.98343      772.99644      817.46021     -138.50637     -40363.712    
     16210  -40363.911      105.32781      106.41975      83.593498      4.5794699      2.5956036      483.98338      768.68934      819.96043     -136.69962     -40363.911    
     16220  -40365.281      105.32781      106.41975      83.593498      4.5794699      2.5956036      491.22818      760.0876       820.31941     -106.72247     -40365.281    
     16230  -40366.798      105.32781      106.41975      83.593498      4.5794699      2.5956036      504.75806      749.93476      819.41189     -55.072473     -40366.798    
     16240  -40367.256      105.32781      106.41975      83.593498      4.5794699      2.5956036      522.22748      741.87303      817.91449      6.8949283     -40367.256    
     16250  -40366.664      105.32781      106.41975      83.593498      4.5794699      2.5956036      538.31876      738.54998      816.24117      60.165114     -40366.664    
     16260  -40366.232      105.32781      106.41975      83.593498      4.5794699      2.5956036      546.54782      740.75552      814.68587      84.202076     -40366.232    
     16270  -40366.582      105.32781      106.41975      83.593498      4.5794699      2.5956036      543.8627       746.75133      813.98427      70.85251      -40366.582    
     16280  -40366.795      105.32781      106.41975      83.593498      4.5794699      2.5956036      532.78923      753.85407      814.27811      30.23552      -40366.795    
     16290  -40366.198      105.32781      106.41975      83.593498      4.5794699      2.5956036      518.65945      759.42555      815.6291      -19.076284     -40366.198    
     16300  -40364.993      105.32781      106.41975      83.593498      4.5794699      2.5956036      506.60947      761.76888      818.08558     -60.026052     -40364.993    
     16310  -40363.413      105.32781      106.41975      83.593498      4.5794699      2.5956036      500.38094      760.62886      821.79064     -81.276673     -40363.413    
     16320  -40362.203      105.32781      106.41975      83.593498      4.5794699      2.5956036      501.17365      757.29045      827.21155     -80.981044     -40362.203    
     16330  -40362.245      105.32781      106.41975      83.593498      4.5794699      2.5956036      508.1791       752.20743      833.77722     -61.447341     -40362.245    
     16340  -40363.338      105.32781      106.41975      83.593498      4.5794699      2.5956036      520.31504      745.03359      839.64859     -23.737067     -40363.338    
     16350  -40364.392      105.32781      106.41975      83.593498      4.5794699      2.5956036      536.01714      736.05902      843.76546      28.226924     -40364.392    
     16360  -40364.764      105.32781      106.41975      83.593498      4.5794699      2.5956036      551.50197      726.98101      845.21528      82.309629     -40364.764    
     16370  -40364.863      105.32781      106.41975      83.593498      4.5794699      2.5956036      560.72892      718.66927      843.98283      119.53465     -40364.863    
     16380  -40365.647      105.32781      106.41975      83.593498      4.5794699      2.5956036      558.54621      712.42804      840.08337      123.12721     -40365.647    
     16390  -40367.115      105.32781      106.41975      83.593498      4.5794699      2.5956036      544.84975      710.2488       833.79162      90.508844     -40367.115    
     16400  -40368.132      105.32781      106.41975      83.593498      4.5794699      2.5956036      524.80456      713.74415      825.0451       35.62443      -40368.132    
     16410  -40368.389      105.32781      106.41975      83.593498      4.5794699      2.5956036      504.75371      722.82101      814.49436     -23.054247     -40368.389    
     16420  -40368.231      105.32781      106.41975      83.593498      4.5794699      2.5956036      489.63832      735.4559       802.94017     -69.481109     -40368.231    
     16430  -40367.779      105.32781      106.41975      83.593498      4.5794699      2.5956036      482.42241      747.86134      792.35915     -92.953267     -40367.779    
     16440  -40367.494      105.32781      106.41975      83.593498      4.5794699      2.5956036      483.59943      757.65853      784.73195     -91.592207     -40367.494    
     16450  -40367.769      105.32781      106.41975      83.593498      4.5794699      2.5956036      492.02552      763.7696       780.63393     -68.326965     -40367.769    
     16460  -40368.125      105.32781      106.41975      83.593498      4.5794699      2.5956036      506.12291      765.61278      779.60028     -26.844345     -40368.125    
     16470  -40367.646      105.32781      106.41975      83.593498      4.5794699      2.5956036      523.20586      763.16129      781.30669      25.149591     -40367.646    
     16480  -40366.281      105.32781      106.41975      83.593498      4.5794699      2.5956036      538.17736      757.72506      784.60756      72.199473     -40366.281    
     16490  -40365.108      105.32781      106.41975      83.593498      4.5794699      2.5956036      544.84486      750.75598      788.78685      94.991768     -40365.108    
     16500  -40365.195      105.32781      106.41975      83.593498      4.5794699      2.5956036      539.92206      742.7618       793.69531      83.309057     -40365.195    
     16510  -40366.127      105.32781      106.41975      83.593498      4.5794699      2.5956036      525.84967      734.68714      799.44109      43.420786     -40366.127    
     16520  -40366.747      105.32781      106.41975      83.593498      4.5794699      2.5956036      508.65421      727.09145      806.07872     -7.2075523     -40366.747    
     16530  -40366.861      105.32781      106.41975      83.593498      4.5794699      2.5956036      493.66904      720.28718      812.49808     -51.778122     -40366.861    
     16540  -40366.722      105.32781      106.41975      83.593498      4.5794699      2.5956036      484.05951      713.85534      817.93079     -79.607606     -40366.722    
     16550  -40366.609      105.32781      106.41975      83.593498      4.5794699      2.5956036      480.9233       706.97055      822.54579     -86.746426     -40366.609    
     16560  -40367.098      105.32781      106.41975      83.593498      4.5794699      2.5956036      483.67232      698.76543      826.88307     -74.631535     -40367.098    
     16570  -40368.167      105.32781      106.41975      83.593498      4.5794699      2.5956036      491.45867      688.83055      830.5168      -44.971352     -40368.167    
     16580  -40368.816      105.32781      106.41975      83.593498      4.5794699      2.5956036      503.5195       678.90681      833.47345     -1.821761      -40368.816    
     16590  -40368.234      105.32781      106.41975      83.593498      4.5794699      2.5956036      517.38345      670.96225      835.80326      45.384847     -40368.234    
     16600  -40366.997      105.32781      106.41975      83.593498      4.5794699      2.5956036      527.91408      666.22794      837.45641      80.057902     -40366.997    
     16610  -40366.385      105.32781      106.41975      83.593498      4.5794699      2.5956036      529.93042      665.58489      837.49716      86.70921      -40366.385    
     16620  -40366.874      105.32781      106.41975      83.593498      4.5794699      2.5956036      522.24529      669.18217      834.73236      62.821349     -40366.874    
     16630  -40367.589      105.32781      106.41975      83.593498      4.5794699      2.5956036      508.70806      676.13863      829.07047      20.91507      -40367.589    
     16640  -40367.651      105.32781      106.41975      83.593498      4.5794699      2.5956036      495.01705      684.64575      821.53375     -21.128354     -40367.651    
     16650  -40367.297      105.32781      106.41975      83.593498      4.5794699      2.5956036      485.20819      692.11753      814.11753     -50.610504     -40367.297    
     16660  -40367.014      105.32781      106.41975      83.593498      4.5794699      2.5956036      480.9975       696.80694      808.02443     -61.838867     -40367.014    
     16670  -40367.117      105.32781      106.41975      83.593498      4.5794699      2.5956036      482.32587      698.68155      803.2837      -54.987629     -40367.117    
     16680  -40367.712      105.32781      106.41975      83.593498      4.5794699      2.5956036      488.20546      698.06382      799.64426     -33.091696     -40367.712    
     16690  -40368.225      105.32781      106.41975      83.593498      4.5794699      2.5956036      497.73037      695.28261      796.9001       1.0083819     -40368.225    
     16700  -40367.695      105.32781      106.41975      83.593498      4.5794699      2.5956036      509.68981      691.25581      795.36593      42.447692     -40367.695    
     16710  -40365.791      105.32781      106.41975      83.593498      4.5794699      2.5956036      521.12733      687.05873      795.67438      80.64889      -40365.791    
     16720  -40363.515      105.32781      106.41975      83.593498      4.5794699      2.5956036      527.35058      683.54462      797.82803      100.67909     -40363.515    
     16730  -40362.307      105.32781      106.41975      83.593498      4.5794699      2.5956036      524.66408      681.20762      800.94465      91.839983     -40362.307    
     16740  -40362.619      105.32781      106.41975      83.593498      4.5794699      2.5956036      513.32511      680.32962      803.94587      55.699826     -40362.619    
     16750  -40363.673      105.32781      106.41975      83.593498      4.5794699      2.5956036      497.51189      680.25133      805.60337      6.6809838     -40363.673    
     16760  -40364.693      105.32781      106.41975      83.593498      4.5794699      2.5956036      482.43585      681.0369       806.04931     -39.778657     -40364.693    
     16770  -40365.491      105.32781      106.41975      83.593498      4.5794699      2.5956036      471.90423      682.95196      805.27557     -72.51485      -40365.491    
     16780  -40366.201      105.32781      106.41975      83.593498      4.5794699      2.5956036      467.64061      685.91131      803.50757     -86.497044     -40366.201    
     16790  -40367.02       105.32781      106.41975      83.593498      4.5794699      2.5956036      469.77716      689.81745      800.85712     -81.343097     -40367.02     
     16800  -40367.787      105.32781      106.41975      83.593498      4.5794699      2.5956036      477.71317      693.64039      797.59265     -58.093515     -40367.787    
     16810  -40368.113      105.32781      106.41975      83.593498      4.5794699      2.5956036      490.14649      697.95345      794.42316     -21.937142     -40368.113    
     16820  -40367.68       105.32781      106.41975      83.593498      4.5794699      2.5956036      504.54878      702.27311      792.49085      18.882394     -40367.68     
     16830  -40366.61       105.32781      106.41975      83.593498      4.5794699      2.5956036      516.91367      705.56965      792.87568      52.295672     -40366.61     
     16840  -40365.731      105.32781      106.41975      83.593498      4.5794699      2.5956036      522.78442      706.74449      795.41927      66.189496     -40365.731    
     16850  -40365.701      105.32781      106.41975      83.593498      4.5794699      2.5956036      519.84646      705.04694      798.46211      56.030337     -40365.701    
     16860  -40366.381      105.32781      106.41975      83.593498      4.5794699      2.5956036      509.57498      700.96197      800.56655      27.196425     -40366.381    
     16870  -40367.073      105.32781      106.41975      83.593498      4.5794699      2.5956036      496.22572      695.26087      801.05412     -7.6378421     -40367.073    
     16880  -40367.364      105.32781      106.41975      83.593498      4.5794699      2.5956036      484.1191       688.74911      799.36708     -35.758877     -40367.364    
     16890  -40367.313      105.32781      106.41975      83.593498      4.5794699      2.5956036      475.86476      682.92469      795.66868     -50.999096     -40367.313    
     16900  -40367.256      105.32781      106.41975      83.593498      4.5794699      2.5956036      472.27402      679.08941      789.81921     -52.086571     -40367.256    
     16910  -40367.521      105.32781      106.41975      83.593498      4.5794699      2.5956036      473.13502      677.33138      781.97932     -39.905642     -40367.521    
     16920  -40367.894      105.32781      106.41975      83.593498      4.5794699      2.5956036      477.99778      677.40745      772.61265     -16.026754     -40367.894    
     16930  -40367.841      105.32781      106.41975      83.593498      4.5794699      2.5956036      485.95152      679.37373      763.13013      15.350699     -40367.841    
     16940  -40366.98       105.32781      106.41975      83.593498      4.5794699      2.5956036      495.03037      683.28585      755.16448      46.640768     -40366.98     
     16950  -40365.595      105.32781      106.41975      83.593498      4.5794699      2.5956036      502.01799      688.50346      749.86694      67.683576     -40365.595    
     16960  -40364.574      105.32781      106.41975      83.593498      4.5794699      2.5956036      503.55576      693.51443      747.86443      69.288421     -40364.574    
     16970  -40364.421      105.32781      106.41975      83.593498      4.5794699      2.5956036      498.30638      696.87725      748.62543      49.416456     -40364.421    
     16980  -40364.965      105.32781      106.41975      83.593498      4.5794699      2.5956036      487.9305       697.85691      751.57513      14.359463     -40364.965    
     16990  -40365.652      105.32781      106.41975      83.593498      4.5794699      2.5956036      476.19878      697.72385      755.46452     -24.592037     -40365.652    
     17000  -40366.014      105.32781      106.41975      83.593498      4.5794699      2.5956036      467.08596      697.3494       759.34993     -55.441446     -40366.014    
     17010  -40366.153      105.32781      106.41975      83.593498      4.5794699      2.5956036      462.91469      697.30474      762.29587     -70.856548     -40366.153    
     17020  -40366.548      105.32781      106.41975      83.593498      4.5794699      2.5956036      463.96303      696.96009      763.95647     -69.027482     -40366.548    
     17030  -40367.454      105.32781      106.41975      83.593498      4.5794699      2.5956036      469.28209      695.43951      763.89726     -51.490486     -40367.454    
     17040  -40368.588      105.32781      106.41975      83.593498      4.5794699      2.5956036      477.62091      693.27306      761.94975     -22.36009      -40368.588    
     17050  -40369.366      105.32781      106.41975      83.593498      4.5794699      2.5956036      487.54688      692.07815      758.91795      11.644542     -40369.366    
     17060  -40369.331      105.32781      106.41975      83.593498      4.5794699      2.5956036      496.94548      692.8563       756.40382      41.576339     -40369.331    
     17070  -40368.72       105.32781      106.41975      83.593498      4.5794699      2.5956036      502.75323      695.32242      756.07646      56.860799     -40368.72     
     17080  -40368.203      105.32781      106.41975      83.593498      4.5794699      2.5956036      502.24548      697.81039      758.98389      49.942155     -40368.203    
     17090  -40367.855      105.32781      106.41975      83.593498      4.5794699      2.5956036      495.19138      698.4544       764.54753      22.572218     -40367.855    
     17100  -40367.248      105.32781      106.41975      83.593498      4.5794699      2.5956036      484.22251      696.54384      771.37711     -15.253418     -40367.248    
     17110  -40366.091      105.32781      106.41975      83.593498      4.5794699      2.5956036      473.22389      692.19272      777.85649     -50.377541     -40366.091    
     17120  -40364.427      105.32781      106.41975      83.593498      4.5794699      2.5956036      465.40537      686.32188      782.50981     -72.615591     -40364.427    
     17130  -40362.758      105.32781      106.41975      83.593498      4.5794699      2.5956036      461.99525      679.95404      784.19652     -78.164819     -40362.758    
     17140  -40361.724      105.32781      106.41975      83.593498      4.5794699      2.5956036      462.52835      673.75345      782.17648     -68.344877     -40361.724    
     17150  -40361.482      105.32781      106.41975      83.593498      4.5794699      2.5956036      466.0926       668.61361      777.31761     -47.653438     -40361.482    
     17156  -40361.542      105.32781      106.41975      83.593498      4.5794699      2.5956036      469.37255      665.66331      773.63132     -31.17696      -40361.542    
Loop time of 40.7117 on 32 procs for 5000 steps with 8064 atoms

Performance: 1.061 ns/day, 22.618 hours/ns, 122.815 timesteps/s
97.7% CPU use with 32 MPI tasks x no OpenMP threads

MPI task timing breakdown:
Section |  min time  |  avg time  |  max time  |%varavg| %total
---------------------------------------------------------------
Pair    | 32.263     | 33.225     | 35.083     |  10.5 | 81.61
Neigh   | 1.0942     | 1.1268     | 1.1521     |   1.5 |  2.77
Comm    | 0.50932    | 2.1005     | 3.4038     |  49.8 |  5.16
Output  | 2.149      | 2.4846     | 2.8627     |  12.0 |  6.10
Modify  | 0.73905    | 1.3147     | 1.7979     |  23.3 |  3.23
Other   |            | 0.4596     |            |       |  1.13

Nlocal:            252 ave         266 max         234 min
Histogram: 1 0 1 5 4 8 6 4 1 2
Nghost:        908.781 ave         927 max         896 min
Histogram: 2 3 7 4 6 4 5 0 0 1
Neighs:              0 ave           0 max           0 min
Histogram: 32 0 0 0 0 0 0 0 0 0
FullNghs:        61178 ave       64603 max       56689 min
Histogram: 1 0 1 5 4 6 8 4 2 1

Total # of neighbors = 1957696
Ave neighs/atom = 242.76984
Neighbor list builds = 228
Dangerous builds = 0
unfix 1


print "Total energy (eV) = ${teng};"
Total energy (eV) = -40361.5421280653;
print "Number of atoms = ${natoms};"
Number of atoms = 8064;
print "relaxed armchair length per unit cell = ${la};"
relaxed armchair length per unit cell = 4.5794699066887;
print "relaxed zigzag length per unit cell = ${lb};"
relaxed zigzag length per unit cell = 2.59560360793515;
print "Cohesive energy (eV) = ${ecoh};"
Cohesive energy (eV) = -5.00515155357953;

print "All done!"
All done!

write_data post_relaxed.data
System init for write_data ...
Total wall time: 0:02:34
